TITLE = "Scalar advection prblem 2d"
VARIABLES = "X", "Y", "sol", "sol_ex"
ZONE T="uu", F=FEPOINT, N=   445, E=   816, ET=TRIANGLE
   0.0000000000000000E+00   0.0000000000000000E+00  -0.1000000000000000E+01  -0.1000000000000000E+01
   0.1000000000000000E+01   0.0000000000000000E+00  -0.9970879197363985E+00  -0.9970879197363985E+00
   0.1000000000000000E+01   0.1000000000000000E+01  -0.9921016016507560E+00  -0.9921016016507560E+00
   0.0000000000000000E+00   0.1000000000000000E+01  -0.9949821098463468E+00  -0.9949821098463468E+00
   0.1000000000000000E+01   0.8888888888890432E+00  -0.9926548871140592E+00  -0.9926548871140592E+00
   0.1000000000000000E+01   0.7777777777780862E+00  -0.9932083601190252E+00  -0.9932083601190252E+00
   0.1000000000000000E+01   0.6666666666673606E+00  -0.9937620206350654E+00  -0.9937620206350654E+00
   0.1000000000000000E+01   0.5555555555567121E+00  -0.9943158686314765E+00  -0.9943158686314765E+00
   0.1000000000000000E+01   0.4444444444457551E+00  -0.9948699040774415E+00  -0.9948699040774415E+00
   0.1000000000000000E+01   0.3333333333344899E+00  -0.9954241269420256E+00  -0.9954241269420256E+00
   0.1000000000000000E+01   0.2222222222231475E+00  -0.9959785371941769E+00  -0.9959785371941769E+00
   0.1000000000000000E+01   0.1111111111115738E+00  -0.9965331348027293E+00  -0.9965331348027293E+00
   0.8888888888890432E+00   0.0000000000000000E+00  -0.9974125233804069E+00  -0.9974125233804069E+00
   0.7777777777780862E+00   0.0000000000000000E+00  -0.9977368679774177E+00  -0.9977368679774177E+00
   0.6666666666673606E+00   0.0000000000000000E+00  -0.9980609532080261E+00  -0.9980609532080261E+00
   0.5555555555567121E+00   0.0000000000000000E+00  -0.9983847787527440E+00  -0.9983847787527440E+00
   0.4444444444457551E+00   0.0000000000000000E+00  -0.9987083442919995E+00  -0.9987083442919995E+00
   0.3333333333344899E+00   0.0000000000000000E+00  -0.9990316495061360E+00  -0.9990316495061360E+00
   0.2222222222231475E+00   0.0000000000000000E+00  -0.9993546940754117E+00  -0.9993546940754117E+00
   0.1111111111115738E+00   0.0000000000000000E+00  -0.9996774776800027E+00  -0.9996774776800027E+00
   0.0000000000000000E+00   0.1111111111108444E+00  -0.9994416964050239E+00  -0.9994416964050239E+00
   0.0000000000000000E+00   0.2222222222216888E+00  -0.9988835828019914E+00  -0.9988835828019914E+00
   0.0000000000000000E+00   0.3333333333326072E+00  -0.9983256592207322E+00  -0.9983256592207322E+00
   0.0000000000000000E+00   0.4444444444435502E+00  -0.9977679256909612E+00  -0.9977679256909612E+00
   0.0000000000000000E+00   0.5555555555546474E+00  -0.9972103822422764E+00  -0.9972103822422764E+00
   0.0000000000000000E+00   0.6666666666658989E+00  -0.9966530289041619E+00  -0.9966530289041619E+00
   0.0000000000000000E+00   0.7777777777771888E+00  -0.9960958657059860E+00  -0.9960958657059860E+00
   0.0000000000000000E+00   0.8888888888885945E+00  -0.9955388926770015E+00  -0.9955388926770015E+00
   0.1111111111108444E+00   0.1000000000000000E+01  -0.9946630951800848E+00  -0.9946630951800848E+00
   0.2222222222216888E+00   0.1000000000000000E+01  -0.9943438193216616E+00  -0.9943438193216616E+00
   0.3333333333326072E+00   0.1000000000000000E+01  -0.9940242825892796E+00  -0.9940242825892796E+00
   0.4444444444435502E+00   0.1000000000000000E+01  -0.9937044853010583E+00  -0.9937044853010583E+00
   0.5555555555546474E+00   0.1000000000000000E+01  -0.9933844277750348E+00  -0.9933844277750348E+00
   0.6666666666658989E+00   0.1000000000000000E+01  -0.9930641103291629E+00  -0.9930641103291629E+00
   0.7777777777771888E+00   0.1000000000000000E+01  -0.9927435332813143E+00  -0.9927435332813143E+00
   0.8888888888885945E+00   0.1000000000000000E+01  -0.9924226969492768E+00  -0.9924226969492768E+00
   0.5780822359655872E+00   0.5152091738885147E+00  -0.9957413796596390E+00  -0.9957413796816915E+00
   0.7114417021524053E+00   0.7733586654384865E+00  -0.9940657914829552E+00  -0.9940657914877676E+00
   0.3178449073673723E+00   0.7460668981886580E+00  -0.9953390484601967E+00  -0.9953390484655220E+00
   0.9127952704692911E+00   0.8170628334984084E+00  -0.9932651831616087E+00  -0.9932651831567423E+00
   0.1675021538860730E+00   0.9128458957204592E+00  -0.9949373467810829E+00  -0.9949373467858414E+00
   0.4677771849962563E+00   0.2156804159302532E+00  -0.9975600496826600E+00  -0.9975600496861186E+00
   0.3063097199850318E+00   0.5227329382093601E+00  -0.9964903678663309E+00  -0.9964903678807461E+00
   0.5202021825384227E+00   0.7994643288573918E+00  -0.9944880390926547E+00  -0.9944880391062416E+00
   0.8074308730388082E+00   0.4799312988181375E+00  -0.9952524248085811E+00  -0.9952524248181479E+00
   0.4624199760400489E+00   0.4217676037403271E+00  -0.9965439239380444E+00  -0.9965439239550289E+00
   0.4917319145817081E+00   0.5844081230330705E+00  -0.9956453903103061E+00  -0.9956453903290490E+00
   0.1129100954734626E+00   0.4077392865061809E+00  -0.9976258598630122E+00  -0.9976258598683027E+00
   0.1106461986432731E+00   0.5185631823181555E+00  -0.9970766268652705E+00  -0.9970766268686251E+00
   0.5148371291358182E+00   0.8937795562484150E+00  -0.9940322983914521E+00  -0.9940322983912290E+00
   0.5023169758700476E+00   0.9809013981707822E-01  -0.9980485205579294E+00  -0.9980485205590784E+00
   0.1075745536343343E+00   0.7383224381324848E+00  -0.9959839483653240E+00  -0.9959839483688380E+00
   0.6374344611840916E+00   0.3096128649017715E+00  -0.9965971701906953E+00  -0.9965971702021689E+00
   0.6799936679371688E+00   0.6339547549922618E+00  -0.9948528199085557E+00  -0.9948528199331588E+00
   0.8453674515225476E+00   0.7075374761738394E+00  -0.9940065618412337E+00  -0.9940065618571516E+00
   0.1132123314517585E+00   0.2939850734080733E+00  -0.9981956465699365E+00  -0.9981956465706028E+00
   0.8367052219428148E+00   0.2643519721781026E+00  -0.9962438995587189E+00  -0.9962438995669702E+00
   0.9209458276297448E-01   0.8434617140081411E+00  -0.9955017341301368E+00  -0.9955017341318629E+00
   0.8478775001285014E+00   0.9088498829312514E+00  -0.9929954595579599E+00  -0.9929954595649353E+00
   0.8181036137277402E+00   0.8149841319621091E+00  -0.9935495841241460E+00  -0.9935495841314370E+00
   0.8329771996095534E+00   0.3612336157239570E+00  -0.9957708812819254E+00  -0.9957708812846009E+00
   0.7468619982697694E+00   0.2819666053543763E+00  -0.9964172970227394E+00  -0.9964172970381023E+00
   0.5508835491352740E+00   0.3708321117989106E+00  -0.9965422615718262E+00  -0.9965422615892884E+00
   0.5984329856255458E+00   0.1907695083116146E+00  -0.9973050116367438E+00  -0.9973050116531843E+00
   0.3606750214146870E+00   0.2724325543905054E+00  -0.9975866635340558E+00  -0.9975866635457182E+00
   0.4062281575474673E+00   0.6744473324322565E+00  -0.9954422393421305E+00  -0.9954422393572341E+00
   0.7301382171216124E+00   0.3850894214175055E+00  -0.9959505893264849E+00  -0.9959505893413516E+00
   0.6864065727140293E+00   0.4816292706115683E+00  -0.9955951662107669E+00  -0.9955951662265076E+00
   0.8317782584684168E+00   0.5913344445552333E+00  -0.9946257060010784E+00  -0.9946257060121456E+00
   0.3621256596858395E+00   0.3737073282138602E+00  -0.9970751534318415E+00  -0.9970751534500515E+00
   0.3070962335676877E+00   0.6218236672962477E+00  -0.9959919376819880E+00  -0.9959919376947524E+00
   0.3536705470659368E+00   0.1780958473233133E+00  -0.9980796947437277E+00  -0.9980796947494841E+00
   0.7343902523489190E+00   0.5624457266204037E+00  -0.9950523246271820E+00  -0.9950523246407765E+00
   0.3982290209024475E+00   0.5589497560404338E+00  -0.9960432423553319E+00  -0.9960432423713905E+00
   0.7633923120748956E+00   0.6468624780928638E+00  -0.9945468069986507E+00  -0.9945468070049146E+00
   0.5425316997745907E+00   0.2854446627909925E+00  -0.9969937197533324E+00  -0.9969937197672385E+00
   0.3024833169517281E+00   0.4299251853357767E+00  -0.9969662782902730E+00  -0.9969662782993403E+00
   0.2595903325229540E+00   0.2200749791344327E+00  -0.9981422540952812E+00  -0.9981422541018451E+00
   0.5885702700766055E+00   0.6064896358893566E+00  -0.9952547355874152E+00  -0.9952547356005378E+00
   0.3946599340745620E+00   0.9786452158337235E-01  -0.9983627069046751E+00  -0.9983627069183368E+00
   0.3865569406285918E+00   0.4686249729644444E+00  -0.9965291182983332E+00  -0.9965291183154326E+00
   0.9137127800806993E+00   0.4094678578993596E+00  -0.9952953341959243E+00  -0.9952953342012731E+00
   0.9081009413098854E+00   0.1749039688573136E+00  -0.9964826840858528E+00  -0.9964826840888330E+00
   0.9219720195306439E+00   0.6289706748061743E+00  -0.9941763292515597E+00  -0.9941763292523927E+00
   0.5975269182579368E+00   0.8248565444080797E+00  -0.9941379044169266E+00  -0.9941379044228739E+00
   0.2168886827235392E+00   0.6889460293804534E+00  -0.9959162109785762E+00  -0.9959162109884223E+00
   0.4623835737645763E+00   0.3253588968572734E+00  -0.9970265769520902E+00  -0.9970265769658482E+00
   0.5022425848998757E+00   0.7065790592592663E+00  -0.9950041456634490E+00  -0.9950041456742525E+00
   0.6346192159479803E+00   0.8994887118601330E+00  -0.9936581760120932E+00  -0.9936581760267078E+00
   0.3376253996930290E+00   0.8381038921142453E+00  -0.9948215455229781E+00  -0.9948215455309366E+00
   0.2400223612772918E+00   0.3432595220645480E+00  -0.9975813922817667E+00  -0.9975813922926245E+00
   0.6205912571482811E+00   0.4195530859247842E+00  -0.9960963585671153E+00  -0.9960963585813805E+00
   0.7427477460666191E+00   0.8994468986986633E+00  -0.9933461470148366E+00  -0.9933461470128088E+00
   0.9358912441560676E+00   0.7168861339649875E+00  -0.9936976250441909E+00  -0.9936976250480877E+00
   0.4746412359995877E+00   0.5009722761659469E+00  -0.9961122053245099E+00  -0.9961122053415681E+00
   0.6062640853103738E+00   0.7143539100329402E+00  -0.9946645901372511E+00  -0.9946645901518790E+00
   0.1484231281810962E+00   0.1919292585988531E+00  -0.9986057414127103E+00  -0.9986057414187551E+00
   0.2624431891226798E+00   0.1102976308990437E+00  -0.9986844855635084E+00  -0.9986844855623022E+00
   0.9230734447990036E+00   0.3020206831549054E+00  -0.9958043764556396E+00  -0.9958043764581916E+00
   0.6154574117055012E+00   0.7945645540659627E-01  -0.9978125132254343E+00  -0.9978125132319475E+00
   0.9299123318972773E+00   0.9229603210637405E+00  -0.9926879496029321E+00  -0.9926879496033741E+00
   0.5373236508577557E+00   0.4456668503036967E+00  -0.9962072546883479E+00  -0.9962072547083225E+00
   0.6534885998084620E+00   0.5599457124004210E+00  -0.9952992998587671E+00  -0.9952992998756844E+00
   0.4329951007236999E+00   0.7956176433292380E+00  -0.9947589804219161E+00  -0.9947589804325467E+00
   0.2850230191259398E+00   0.9109516009447862E+00  -0.9946086585789328E+00  -0.9946086585776849E+00
   0.2130199394868649E+00   0.5865521891764814E+00  -0.9964402655918339E+00  -0.9964402656011632E+00
   0.2174696617383274E+00   0.8038773816295792E+00  -0.9953390460941262E+00  -0.9953390461022669E+00
   0.9124823218530946E+00   0.5182840460135619E+00  -0.9947559594675766E+00  -0.9947559594725394E+00
   0.1862451964901226E+00   0.2674389149903775E+00  -0.9981173269125644E+00  -0.9981173269195408E+00
   0.3913764044091074E+00   0.9064087821061140E+00  -0.9943250813264279E+00  -0.9943250813332473E+00
   0.1449967656976995E+00   0.8432403409918970E-01  -0.9991557298628926E+00  -0.9991557298656516E+00
   0.2215358533018240E+00   0.4796731774807467E+00  -0.9969511806414448E+00  -0.9969511806541099E+00
   0.7414156955197837E-01   0.9290392997234390E+00  -0.9951246684105568E+00  -0.9951246684119289E+00
   0.6833508682280017E+00   0.1903947624328337E+00  -0.9970598582192048E+00  -0.9970598582203216E+00
   0.1080215624146686E+00   0.6257676768713535E+00  -0.9965467494051605E+00  -0.9965467494100427E+00
   0.7314375930747655E+00   0.9017732067951294E-01  -0.9974210204969525E+00  -0.9974210205036117E+00
   0.7962037323475265E+00   0.1833832399919346E+00  -0.9967663715683894E+00  -0.9967663715719712E+00
   0.8383029918464771E+00   0.8704978237830856E-01  -0.9971251139961825E+00  -0.9971251140002355E+00
   0.6979508988691650E-01   0.1330284363171997E+00  -0.9991293203863101E+00  -0.9991293203856514E+00
   0.6518059333923795E-01   0.6569271630544675E-01  -0.9994808562644061E+00  -0.9994808562651570E+00
   0.9274090176795552E+00   0.7383416474109021E-01  -0.9969311693458577E+00  -0.9969311693454801E+00
   0.1393066324984587E+00   0.9564229478602295E+00  -0.9948002534550795E+00  -0.9948002534572797E+00
   0.1948621880538809E+00   0.9564229478602295E+00  -0.9946405388513524E+00  -0.9946405388534463E+00
   0.1666666666662666E+00   0.1000000000000000E+01  -0.9945034898800037E+00  -0.9945034898800037E+00
   0.9563976352346455E+00   0.8529758611937257E+00  -0.9929599959366265E+00  -0.9929599959350757E+00
   0.9563976352346455E+00   0.7974203056382473E+00  -0.9932368156214231E+00  -0.9932368156201287E+00
   0.1000000000000000E+01   0.8333333333335646E+00  -0.9929316001757433E+00  -0.9929316001757433E+00
   0.5351963423452328E+00   0.9468897781242075E+00  -0.9937083118445764E+00  -0.9937083118458213E+00
   0.4999999999990988E+00   0.1000000000000000E+01  -0.9935444890478977E+00  -0.9935444890478977E+00
   0.4796407867896842E+00   0.9468897781242075E+00  -0.9938684421513627E+00  -0.9938684421506800E+00
   0.4733807101579014E+00   0.4904506990853911E-01  -0.9983783779194875E+00  -0.9983783779219103E+00
   0.5000000000012336E+00   0.0000000000000000E+00  -0.9985465940430313E+00  -0.9985465940430313E+00
   0.5289362657133798E+00   0.4904506990853911E-01  -0.9982166800934338E+00  -0.9982166800959313E+00
   0.7647726579400728E+00   0.7941713987002978E+00  -0.9938076794004224E+00  -0.9938076794066254E+00
   0.7784045768374764E+00   0.7404480708061629E+00  -0.9940362849724327E+00  -0.9940362849805381E+00
   0.8317355326251439E+00   0.7612608040679743E+00  -0.9937780760485780E+00  -0.9937780760569906E+00
   0.8654494420985157E+00   0.8160234827302587E+00  -0.9934074055992306E+00  -0.9934074056034657E+00
   0.8790813609959194E+00   0.7623001548361239E+00  -0.9936358034193283E+00  -0.9936358034262638E+00
   0.8683831945085480E+00   0.9544249414656256E+00  -0.9927090374411518E+00  -0.9927090374444009E+00
   0.8333333333328916E+00   0.1000000000000000E+01  -0.9925831475059607E+00  -0.9925831475059607E+00
   0.8128276389528450E+00   0.9544249414656256E+00  -0.9928695437763398E+00  -0.9928695437795337E+00
   0.4604729138148724E-01   0.8661753014483677E+00  -0.9955203648148698E+00  -0.9955203648150144E+00
   0.0000000000000000E+00   0.8333333333328916E+00  -0.9958173554185208E+00  -0.9958173554185208E+00
   0.4604729138148724E-01   0.8106197458926649E+00  -0.9957987664237771E+00  -0.9957987664244041E+00
   0.8329905569281209E+00   0.8619170074466802E+00  -0.9932724853935390E+00  -0.9932724853986459E+00
   0.8803363852988962E+00   0.8629563582148299E+00  -0.9931303633061250E+00  -0.9931303633072887E+00
   0.0000000000000000E+00   0.2777777777771480E+00  -0.9986045972567803E+00  -0.9986045972567803E+00
   0.5660616572587925E-01   0.2581036478148810E+00  -0.9985395744812872E+00  -0.9985395744843549E+00
   0.5660616572587925E-01   0.3136592033703403E+00  -0.9982607190441242E+00  -0.9982607190453500E+00
   0.7917836101062921E+00   0.2731592887662394E+00  -0.9963306314055855E+00  -0.9963306314156231E+00
   0.8348412107761841E+00   0.3127927939510298E+00  -0.9960073754606700E+00  -0.9960073754675153E+00
   0.7899195989396615E+00   0.3216001105391667E+00  -0.9960940427177373E+00  -0.9960940427273578E+00
   0.5331050853109011E+00   0.2032249621209339E+00  -0.9974326001648020E+00  -0.9974326001752628E+00
   0.4850470804331520E+00   0.1568852778736657E+00  -0.9978042939726071E+00  -0.9978042939784435E+00
   0.5503749807477967E+00   0.1444298240643464E+00  -0.9976767035405165E+00  -0.9976767035479571E+00
   0.7687845450802103E+00   0.4325103601178215E+00  -0.9956014477423987E+00  -0.9956014477527304E+00
   0.7815577083655829E+00   0.3731615185707313E+00  -0.9958607813704780E+00  -0.9958607813805028E+00
   0.8202040363241808E+00   0.4205824572710473E+00  -0.9955116519017335E+00  -0.9955116519097106E+00
   0.7469187228764187E+00   0.4807802847148529E+00  -0.9954238355961765E+00  -0.9954238356104863E+00
   0.7082723949178209E+00   0.4333593460145369E+00  -0.9957728983769263E+00  -0.9957728983906001E+00
   0.3124705704675300E+00   0.6839452827424528E+00  -0.9956654532590775E+00  -0.9956654532696821E+00
   0.3566621955575775E+00   0.6481354998642521E+00  -0.9957170679969308E+00  -0.9957170680108749E+00
   0.3620365324574198E+00   0.7102571153104573E+00  -0.9953907045671296E+00  -0.9953907045788357E+00
   0.4107238660310966E+00   0.1968881316267833E+00  -0.9978198699171970E+00  -0.9978198699253863E+00
   0.4142261032054717E+00   0.2440564851603793E+00  -0.9975734287477316E+00  -0.9975734287565201E+00
   0.3571727842403119E+00   0.2252642008569093E+00  -0.9978331570075727E+00  -0.9978331570154466E+00
   0.7709105626938636E+00   0.5211885127192706E+00  -0.9951524233301238E+00  -0.9951524233410339E+00
   0.7103984125314742E+00   0.5220374986159860E+00  -0.9953237084163549E+00  -0.9953237084324209E+00
   0.8196045657536125E+00   0.5356328716866854E+00  -0.9949390219408781E+00  -0.9949390219517188E+00
   0.7830842554086679E+00   0.5768900855878185E+00  -0.9948390164305417E+00  -0.9948390164425458E+00
   0.4449804677420778E+00   0.5716789395367522E+00  -0.9958443193535282E+00  -0.9958443193707578E+00
   0.4489800360645877E+00   0.6294277277326635E+00  -0.9955438792952860E+00  -0.9955438793111745E+00
   0.4022285892249574E+00   0.6166985442363452E+00  -0.9957427081971518E+00  -0.9957427082120787E+00
   0.7216929900060322E+00   0.6404086165425629E+00  -0.9946998229211320E+00  -0.9946998229355100E+00
   0.7374170071136504E+00   0.7101105717656752E+00  -0.9943063276326944E+00  -0.9943063276439266E+00
   0.6957176850447870E+00   0.7036567102153741E+00  -0.9944592366926689E+00  -0.9944592367027775E+00
   0.8043798817987216E+00   0.6771999771333517E+00  -0.9942766558378444E+00  -0.9942766558476889E+00
   0.7975852852716562E+00   0.6190984613240486E+00  -0.9945862928567445E+00  -0.9945862928654220E+00
   0.8385728549954822E+00   0.6494359603645363E+00  -0.9943160962670016E+00  -0.9943160962768909E+00
   0.5899830804793411E+00   0.2975287638463820E+00  -0.9967954494258802E+00  -0.9967954494399778E+00
   0.5704823427000683E+00   0.2381070855513036E+00  -0.9971493986651514E+00  -0.9971493986761493E+00
   0.6179337234048188E+00   0.2501911866066930E+00  -0.9969510313307146E+00  -0.9969510313418790E+00
   0.5941590051596828E+00   0.3402224883503411E+00  -0.9965697703074955E+00  -0.9965697703223710E+00
   0.5467076244549324E+00   0.3281383872949516E+00  -0.9967679712887419E+00  -0.9967679713041727E+00
   0.5051544423854235E+00   0.2505625393606228E+00  -0.9972768489020940E+00  -0.9972768489131839E+00
   0.5401510923291568E+00   0.5954488794612136E+00  -0.9954500698366799E+00  -0.9954500698528727E+00
   0.5349070752736477E+00   0.5498086484607927E+00  -0.9956934426166586E+00  -0.9956934426354886E+00
   0.5833262530210963E+00   0.5608494048889356E+00  -0.9954980344513940E+00  -0.9954980344698139E+00
   0.4195521892601586E+00   0.4893226079168617E-01  -0.9985355523935830E+00  -0.9985355523998493E+00
   0.3639966337045260E+00   0.4893226079168617E-01  -0.9986971222837034E+00  -0.9986971222897764E+00
   0.3888888888901225E+00   0.0000000000000000E+00  -0.9988700294596896E+00  -0.9988700294596896E+00
   0.4244884583343204E+00   0.4451962883523858E+00  -0.9965365601559848E+00  -0.9965365601730803E+00
   0.3743413001572157E+00   0.4211661505891523E+00  -0.9968021018797751E+00  -0.9968021018965048E+00
   0.4122728178629442E+00   0.3977374659770937E+00  -0.9968095227134607E+00  -0.9968095227308962E+00
   0.3464333303068118E+00   0.4956789555869022E+00  -0.9965097887358249E+00  -0.9965097887510347E+00
   0.3923929807655196E+00   0.5137873645024391E+00  -0.9962861567488832E+00  -0.9962861567652884E+00
   0.3522693704437396E+00   0.5408413471248970E+00  -0.9962667986192769E+00  -0.9962667986348561E+00
   0.9540504706549426E+00   0.1430075399844437E+00  -0.9965079702447438E+00  -0.9965079702460776E+00
   0.1000000000000000E+01   0.1666666666673607E+00  -0.9962558125808555E+00  -0.9962558125808555E+00
   0.9540504706549426E+00   0.1985630955402305E+00  -0.9962305941273298E+00  -0.9962305941285787E+00
   0.9609860097653220E+00   0.5922631151814433E+00  -0.9942461498491523E+00  -0.9942461498502073E+00
   0.1000000000000000E+01   0.6111111111120364E+00  -0.9940389212001479E+00  -0.9940389212001479E+00
   0.9609860097653220E+00   0.6478186707367675E+00  -0.9939691650017159E+00  -0.9939691650029745E+00
   0.8836697355265957E+00   0.6682540754900068E+00  -0.9940914966530797E+00  -0.9940914966615557E+00
   0.8768751389995304E+00   0.6101525596807038E+00  -0.9944010094929808E+00  -0.9944010094991987E+00
   0.4624017749023126E+00   0.3735632502988003E+00  -0.9967852326462247E+00  -0.9967852326622971E+00
   0.5066335614499251E+00   0.3480955043280920E+00  -0.9967844041413503E+00  -0.9967844041568950E+00
   0.5066517625876614E+00   0.3962998577696188E+00  -0.9965431439983363E+00  -0.9965431440158644E+00
   0.4650803793804163E+00   0.2705196563937633E+00  -0.9972932950743518E+00  -0.9972932950844862E+00
   0.4115292975896316E+00   0.2988957256238894E+00  -0.9973065996106650E+00  -0.9973065996242951E+00
   0.4969872497407919E+00   0.6454935911461684E+00  -0.9953247296192175E+00  -0.9953247296335015E+00
   0.5454064274882406E+00   0.6565343475743115E+00  -0.9951295092290102E+00  -0.9951295092432101E+00
   0.5950873857513139E+00   0.9497443559300665E+00  -0.9935213615772719E+00  -0.9935213615830794E+00
   0.6506429413069397E+00   0.9497443559300665E+00  -0.9933611012443732E+00  -0.9933611012508944E+00
   0.6111111111102732E+00   0.1000000000000000E+01  -0.9932243015222109E+00  -0.9932243015222109E+00
   0.6290128591661863E+00   0.3645829754132778E+00  -0.9963467566998681E+00  -0.9963467567134592E+00
   0.6837863391528520E+00   0.3473511431596385E+00  -0.9962738362037115E+00  -0.9962738362173301E+00
   0.6753647371349467E+00   0.4023212536711449E+00  -0.9960235330489663E+00  -0.9960235330637077E+00
   0.5857374031417776E+00   0.3951925988618474E+00  -0.9963192914983549E+00  -0.9963192915147073E+00
   0.7953126230975602E+00   0.9041483908149573E+00  -0.9931708243469762E+00  -0.9931708243492675E+00
   0.7804256798971796E+00   0.8572155153303862E+00  -0.9934479170056345E+00  -0.9934479170099825E+00
   0.7602627619219040E+00   0.9497234493493316E+00  -0.9930447963843227E+00  -0.9930447963846037E+00
   0.9679456220780338E+00   0.7473319558715368E+00  -0.9934529655444645E+00  -0.9934529655460891E+00
   0.9679456220780338E+00   0.6917764003161740E+00  -0.9937298541986285E+00  -0.9937298542008631E+00
   0.1000000000000000E+01   0.7222222222227235E+00  -0.9934851669400772E+00  -0.9934851669400772E+00
   0.8906293478393076E+00   0.7122118050694135E+00  -0.9938521080960138E+00  -0.9938521081038821E+00
   0.9243432573126793E+00   0.7669744837316979E+00  -0.9934814046550884E+00  -0.9934814046582091E+00
   0.4831865752906479E+00   0.5426901995995087E+00  -0.9958787740259587E+00  -0.9958787740436970E+00
   0.4364351284510176E+00   0.5299610161031904E+00  -0.9960777677577469E+00  -0.9960777677745599E+00
   0.5263617359825874E+00   0.5080907250272308E+00  -0.9959268086538495E+00  -0.9959268086739949E+00
   0.6431288766237713E+00   0.6741543325126010E+00  -0.9947587537202185E+00  -0.9947587537379102E+00
   0.5974171776934896E+00   0.6604217729611483E+00  -0.9949596264244573E+00  -0.9949596264406740E+00
   0.6342819690068870E+00   0.6202221954408091E+00  -0.9950537784852079E+00  -0.9950537785042962E+00
   0.2423327056729137E+00   0.5514881544952185E-01  -0.9990195356532023E+00  -0.9990195356512050E+00
   0.2777777777788187E+00   0.0000000000000000E+00  -0.9991932043913684E+00  -0.9991932043913684E+00
   0.2978882612285848E+00   0.5514881544952185E-01  -0.9988581193971096E+00  -0.9988581193993243E+00
   0.9615367223995017E+00   0.3176770082446976E+00  -0.9956142463068650E+00  -0.9956142463081153E+00
   0.9615367223995017E+00   0.2621214526890264E+00  -0.9958915087812049E+00  -0.9958915087824309E+00
   0.1000000000000000E+01   0.2777777777788187E+00  -0.9957013086466008E+00  -0.9957013086466008E+00
   0.8798893333709092E+00   0.2831863276665040E+00  -0.9960241291565974E+00  -0.9960241291623484E+00
   0.8780253222042784E+00   0.3316271494394312E+00  -0.9957876856544828E+00  -0.9957876856585999E+00
   0.5588871937877744E+00   0.8877329761183725E-01  -0.9979305666138090E+00  -0.9979305666166024E+00
   0.5855064836311066E+00   0.3972822770329813E-01  -0.9980986057014689E+00  -0.9980986057052909E+00
   0.9649561659486386E+00   0.9059246049763918E+00  -0.9926714478212590E+00  -0.9926714478211758E+00
   0.1000000000000000E+01   0.9444444444445216E+00  -0.9923782209377926E+00  -0.9923782209377926E+00
   0.9649561659486386E+00   0.9614801605318702E+00  -0.9923947347320872E+00  -0.9923947347310029E+00
   0.9094006103929360E+00   0.9614801605318702E+00  -0.9925553412697231E+00  -0.9925553412716025E+00
   0.9444444444442972E+00   0.1000000000000000E+01  -0.9922621816509736E+00  -0.9922621816509736E+00
   0.4998718134489023E+00   0.4337172270220119E+00  -0.9963755888624970E+00  -0.9963755888812519E+00
   0.5059824434286717E+00   0.4733195632348218E+00  -0.9961597618751183E+00  -0.9961597618949832E+00
   0.4685306060198183E+00   0.4613699399531370E+00  -0.9963280453873348E+00  -0.9963280454050026E+00
   0.5441035999965149E+00   0.4082494810513037E+00  -0.9963747559333039E+00  -0.9963747559521078E+00
   0.5577029434116714E+00   0.4804380120961057E+00  -0.9959742899371833E+00  -0.9959742899567702E+00
   0.6157854178870246E+00   0.5375774431444679E+00  -0.9955203242760505E+00  -0.9955203242958344E+00
   0.6322444043398082E+00   0.4984192222500415E+00  -0.9956683303570414E+00  -0.9956683303749024E+00
   0.6699475862612456E+00   0.5207874915059947E+00  -0.9954472445351293E+00  -0.9954472445510923E+00
   0.6667411338728153E+00   0.5969502336963415E+00  -0.9950760358127106E+00  -0.9950760358324887E+00
   0.6210294349425337E+00   0.5832176741448888E+00  -0.9952770485082080E+00  -0.9952770485250825E+00
   0.7047072063662589E+00   0.9497234493493316E+00  -0.9932051847972790E+00  -0.9932051847988370E+00
   0.7222222222215439E+00   0.1000000000000000E+01  -0.9929038542356219E+00  -0.9929038542356219E+00
   0.9155871930544445E+00   0.2384623260061095E+00  -0.9961434851173386E+00  -0.9961434851204855E+00
   0.8724030816263502E+00   0.2196279705177081E+00  -0.9963633404971699E+00  -0.9963633405008603E+00
   0.7270947241095123E+00   0.8364027820685749E+00  -0.9937059104293203E+00  -0.9937059104356097E+00
   0.6410620391864309E+00   0.3972822770329813E-01  -0.9979367602976776E+00  -0.9979367603007702E+00
   0.6111111111120364E+00   0.0000000000000000E+00  -0.9982228984610927E+00  -0.9982228984610927E+00
   0.9289316318433558E+00   0.6729284043855809E+00  -0.9939369533189025E+00  -0.9939369533231340E+00
   0.3285515615986209E+00   0.1040810762412080E+00  -0.9985236550842551E+00  -0.9985236550884596E+00
   0.7385001076956910E+00   0.3335280133859409E+00  -0.9961839372877022E+00  -0.9961839373015458E+00
   0.6921482297269306E+00   0.2957897351280739E+00  -0.9965072875375994E+00  -0.9965072875491999E+00
   0.4542353712236715E+00   0.6905131958457614E+00  -0.9952231904995207E+00  -0.9952231905123664E+00
   0.5789574540030185E+00   0.4326099681142405E+00  -0.9961518407408260E+00  -0.9961518407596849E+00
   0.5993367465569341E+00   0.4673811299066495E+00  -0.9959188885065920E+00  -0.9959188885257586E+00
   0.5024576367695834E+00   0.3054017798241330E+00  -0.9970101875115801E+00  -0.9970101875254616E+00
   0.4122546167252079E+00   0.3495331125355668E+00  -0.9970509255179374E+00  -0.9970509255347131E+00
   0.3614003405502633E+00   0.3230699413021828E+00  -0.9973308876910310E+00  -0.9973308877064067E+00
   0.3101326769688205E+00   0.2462537667624690E+00  -0.9978644386902314E+00  -0.9978644386980945E+00
   0.3066304397944454E+00   0.1990854132288730E+00  -0.9981110256429372E+00  -0.9981110256490062E+00
   0.3526626272350676E+00   0.5903867116683408E+00  -0.9960176495515374E+00  -0.9960176495662544E+00
   0.3067029767763598E+00   0.5722783027528039E+00  -0.9962411333409955E+00  -0.9962411333550977E+00
   0.6534989149311552E+00   0.4505911782681762E+00  -0.9958457341701916E+00  -0.9958457341855155E+00
   0.6939394260786904E+00   0.5611957195104124E+00  -0.9951758278345831E+00  -0.9951758278513760E+00
   0.7071919601430439E+00   0.5982002408063327E+00  -0.9949526009820102E+00  -0.9949526009995605E+00
   0.7488912822119073E+00   0.6046541023566337E+00  -0.9947995351346561E+00  -0.9947995351464674E+00
   0.3445201287901599E+00   0.4492750791501106E+00  -0.9967476883848725E+00  -0.9967476883984918E+00
   0.3043965184683800E+00   0.4763290617725684E+00  -0.9967283038069942E+00  -0.9967283038185281E+00
   0.3323044883187838E+00   0.4018162567748185E+00  -0.9970207456763451E+00  -0.9970207456891045E+00
   0.4305990883140898E+00   0.4847986245651956E+00  -0.9963206577689353E+00  -0.9963206577858599E+00
   0.5542533351051248E+00   0.7104664846461033E+00  -0.9948343898895312E+00  -0.9948343899025182E+00
   0.5632331339243982E+00   0.7569091194451660E+00  -0.9945763779857614E+00  -0.9945763779976469E+00
   0.5112223837191492E+00   0.7530216940583291E+00  -0.9947460635899298E+00  -0.9947460636023991E+00
   0.9568563900403497E+00   0.3714005956169247E+00  -0.9953597909791231E+00  -0.9953597909813912E+00
   0.1000000000000000E+01   0.3888888888901225E+00  -0.9951469920843444E+00  -0.9951469920843444E+00
   0.9568563900403497E+00   0.4269561511725574E+00  -0.9950826124890909E+00  -0.9950826124921455E+00
   0.9183931124398514E+00   0.3557442705271325E+00  -0.9955498415734824E+00  -0.9955498415763654E+00
   0.8605718265597537E+00   0.4446995783587485E+00  -0.9952739588323040E+00  -0.9952739588394646E+00